<?xml version="1.0" encoding="UTF-8"?>

<!-- generated on Mi 06 Apr 2022 17:23:24 CEST by Eclipse SUMO GUI Version 1.4.0
<configuration xmlns:xsi="http://www.w3.org/2001/XMLSchema-instance" xsi:noNamespaceSchemaLocation="http://sumo.dlr.de/xsd/sumoConfiguration.xsd">

    <input>
        <net-file value="/home2/zhihao.li/carla-rss/Co-Simulation/Sumo/examples/hbf/hbf.net.xml"/>
        <route-files value="/home2/zhihao.li/carla-rss/Co-Simulation/Sumo/examples/hbf/hbf.rou.xml"/>
    </input>

    <output>
        <tripinfo-output value="tripinfo.xml"/>
    </output>

    <traci_server>
        <remote-port value="46499"/>
    </traci_server>

    <gui_only>
        <registry-viewport value="true"/>
    </gui_only>

</configuration>
-->

<tripinfos xmlns:xsi="http://www.w3.org/2001/XMLSchema-instance" xsi:noNamespaceSchemaLocation="http://sumo.dlr.de/xsd/tripinfo_file.xsd">
</tripinfos>
